<VTKFile type="UnstructuredGrid" version="0.1" byte_order="LittleEndian">
  <UnstructuredGrid>
    <Piece NumberOfPoints="72" NumberOfCells="24">
      <PointData>
      </PointData>
      <CellData>
        <DataArray type="Int32" Name="ElementaryEntities" format="ascii" RangeMin="1" RangeMax="4">
          1 1 1 1 1 1
          2 2 2 2 2 2
          3 3 3 3 3 3
          4 4 4 4 4 4
        </DataArray>
        <DataArray type="Int32" Name="PhysicalIds" format="ascii" RangeMin="1" RangeMax="1">
          1 1 1 1 1 1
          1 1 1 1 1 1
          1 1 1 1 1 1
          1 1 1 1 1 1
        </DataArray>
      </CellData>
      <Points>
        <DataArray type="Float32" Name="Points" NumberOfComponents="3" format="ascii" RangeMin="1.2230210629e-15" RangeMax="1">
          1 0 0 0 -1 0
          -1 0 0 0 1 0
          0.96592581272 -0.25881904364 0 0.86602538824 -0.5 0
          0.70710676908 -0.70710676908 0 0.5 -0.86602538824 0
          0.25881904364 -0.96592581272 0 -0.25881904364 -0.96592581272 0
          -0.5 -0.86602538824 0 -0.70710676908 -0.70710676908 0
          -0.86602538824 -0.5 0 -0.96592581272 -0.25881904364 0
          -0.96592581272 0.25881904364 0 -0.86602538824 0.5 0
          -0.70710676908 0.70710676908 0 -0.5 0.86602538824 0
          -0.25881904364 0.96592581272 0 0.25881904364 0.96592581272 0
          0.5 0.86602538824 0 0.70710676908 0.70710676908 0
          0.86602538824 0.5 0 0.96592581272 0.25881904364 0
          1.031339058e-15 -6.5735855344e-16 0 -0.49623519182 0.065330602229 0
          0.069892495871 0.49457496405 0 -0.06049444899 -0.49581223726 0
          0.51335591078 -0.070521228015 0 0.35864496231 -0.47289976478 0
          -0.46592581272 -0.35751745105 0 0.46592581272 0.35751745105 0
          -0.35751745105 0.46592581272 0 -0.22870893776 0.19463476539 0
          -0.27129104733 -0.12880851328 0 0.19713686407 0.22858087718 0
          0.13602925837 -0.27690654993 0 -0.64516860247 0.31089964509 0
          -0.30706331134 -0.63467204571 0 0.31155133247 0.64493143559 0
          0.63846176863 -0.30989167094 0 -0.70365178585 -0.13332405686 0
          -0.1323351711 0.69251996279 0 0.13417601585 -0.70458763838 0
          0.69520294666 0.1322453469 0 -0.76219630241 0.10034504533 0
          0.10158554465 0.75959044695 0 -0.098440162838 -0.76019954681 0
          0.76258927584 -0.10139732063 0 0.26263388991 -0.040197692811 0
          0.42685109377 0.12152495235 0 -0.2363037169 -0.36646237969 0
          -0.13340441883 0.4151353538 0 0.38182514906 -0.23408338428 0
          -0.66469186544 -0.51003599167 0 -0.51003599167 0.66469186544 0
          0.66469186544 0.51003599167 0 0.51026153564 -0.66608667374 0
          -0.081676609814 -0.23493848741 0 -0.018691686913 0.24769677222 0
          -0.4319075644 0.25919771194 0 0.26112663746 0.43140119314 0
          -0.48427596688 -0.13857986033 0 0.14178992808 -0.4795114696 0
          0.34349861741 -0.75288724899 0 -0.75240284204 -0.34338381886 0
          -0.34037300944 0.75914508104 0 0.75914508104 0.34037300944 0
          0.63761234283 -0.52680271864 0 -0.63789105415 0.52641946077 0
          -0.52525627613 -0.64518278837 0 0.52645343542 0.63787871599 0
        </DataArray>
      </Points>
      <Cells>
        <DataArray type="Int64" Name="connectivity" format="ascii" RangeMin="0" RangeMax="23">
          0 4 4 5 5 6
          6 7 7 8 8 1
          1 9 9 10 10 11
          11 12 12 13 13 2
          2 14 14 15 15 16
          16 17 17 18 18 3
          3 19 19 20 20 21
          21 22 22 23 23 0
        </DataArray>
        <DataArray type="Int64" Name="offsets" format="ascii" RangeMin="2" RangeMax="48">
          2 4 6 8 10 12
          14 16 18 20 22 24
          26 28 30 32 34 36
          38 40 42 44 46 48
        </DataArray>
        <DataArray type="UInt8" Name="types" format="ascii" RangeMin="3" RangeMax="3">
          3 3 3 3 3 3
          3 3 3 3 3 3
          3 3 3 3 3 3
          3 3 3 3 3 3
        </DataArray>
      </Cells>
    </Piece>
  </UnstructuredGrid>
</VTKFile>
