<VTKFile type="UnstructuredGrid" version="0.1" byte_order="LittleEndian">
  <UnstructuredGrid>
    <Piece NumberOfPoints="400" NumberOfCells="722">
      <PointData Scalars="pi" Vectors="Velocity">
        <DataArray type="Float64" Name="Pressure" format="ascii" RangeMin="0" RangeMax="0">
          0 0 0 0 0 0
          0 0 0 0 0 0
          0 0 0 0 0 0
          0 0 0 0 0 0
          0 0 0 0 0 0
          0 0 0 0 0 0
          0 0 0 0 0 0
          0 0 0 0 0 0
          0 0 0 0 0 0
          0 0 0 0 0 0
          0 0 0 0 0 0
          0 0 0 0 0 0
          0 0 0 0 0 0
          0 0 0 0 0 0
          0 0 0 0 0 0
          0 0 0 0 0 0
          0 0 0 0 0 0
          0 0 0 0 0 0
          0 0 0 0 0 0
          0 0 0 0 0 0
          0 0 0 0 0 0
          0 0 0 0 0 0
          0 0 0 0 0 0
          0 0 0 0 0 0
          0 0 0 0 0 0
          0 0 0 0 0 0
          0 0 0 0 0 0
          0 0 0 0 0 0
          0 0 0 0 0 0
          0 0 0 0 0 0
          0 0 0 0 0 0
          0 0 0 0 0 0
          0 0 0 0 0 0
          0 0 0 0 0 0
          0 0 0 0 0 0
          0 0 0 0 0 0
          0 0 0 0 0 0
          0 0 0 0 0 0
          0 0 0 0 0 0
          0 0 0 0 0 0
          0 0 0 0 0 0
          0 0 0 0 0 0
          0 0 0 0 0 0
          0 0 0 0 0 0
          0 0 0 0 0 0
          0 0 0 0 0 0
          0 0 0 0 0 0
          0 0 0 0 0 0
          0 0 0 0 0 0
          0 0 0 0 0 0
          0 0 0 0 0 0
          0 0 0 0 0 0
          0 0 0 0 0 0
          0 0 0 0 0 0
          0 0 0 0 0 0
          0 0 0 0 0 0
          0 0 0 0 0 0
          0 0 0 0 0 0
          0 0 0 0 0 0
          0 0 0 0 0 0
          0 0 0 0 0 0
          0 0 0 0 0 0
          0 0 0 0 0 0
          0 0 0 0 0 0
          0 0 0 0 0 0
          0 0 0 0 0 0
          0 0 0 0
        </DataArray>
        <DataArray type="Float64" Name="Time" format="ascii" RangeMin="0" RangeMax="0">
          0 0 0 0 0 0
          0 0 0 0 0 0
          0 0 0 0 0 0
          0 0 0 0 0 0
          0 0 0 0 0 0
          0 0 0 0 0 0
          0 0 0 0 0 0
          0 0 0 0 0 0
          0 0 0 0 0 0
          0 0 0 0 0 0
          0 0 0 0 0 0
          0 0 0 0 0 0
          0 0 0 0 0 0
          0 0 0 0 0 0
          0 0 0 0 0 0
          0 0 0 0 0 0
          0 0 0 0 0 0
          0 0 0 0 0 0
          0 0 0 0 0 0
          0 0 0 0 0 0
          0 0 0 0 0 0
          0 0 0 0 0 0
          0 0 0 0 0 0
          0 0 0 0 0 0
          0 0 0 0 0 0
          0 0 0 0 0 0
          0 0 0 0 0 0
          0 0 0 0 0 0
          0 0 0 0 0 0
          0 0 0 0 0 0
          0 0 0 0 0 0
          0 0 0 0 0 0
          0 0 0 0 0 0
          0 0 0 0 0 0
          0 0 0 0 0 0
          0 0 0 0 0 0
          0 0 0 0 0 0
          0 0 0 0 0 0
          0 0 0 0 0 0
          0 0 0 0 0 0
          0 0 0 0 0 0
          0 0 0 0 0 0
          0 0 0 0 0 0
          0 0 0 0 0 0
          0 0 0 0 0 0
          0 0 0 0 0 0
          0 0 0 0 0 0
          0 0 0 0 0 0
          0 0 0 0 0 0
          0 0 0 0 0 0
          0 0 0 0 0 0
          0 0 0 0 0 0
          0 0 0 0 0 0
          0 0 0 0 0 0
          0 0 0 0 0 0
          0 0 0 0 0 0
          0 0 0 0 0 0
          0 0 0 0 0 0
          0 0 0 0 0 0
          0 0 0 0 0 0
          0 0 0 0 0 0
          0 0 0 0 0 0
          0 0 0 0 0 0
          0 0 0 0 0 0
          0 0 0 0 0 0
          0 0 0 0 0 0
          0 0 0 0
        </DataArray>
        <DataArray type="Float64" Name="pi" format="ascii" RangeMin="3.1415926536" RangeMax="3.1415926536">
          3.1415926536 3.1415926536 3.1415926536 3.1415926536 3.1415926536 3.1415926536
          3.1415926536 3.1415926536 3.1415926536 3.1415926536 3.1415926536 3.1415926536
          3.1415926536 3.1415926536 3.1415926536 3.1415926536 3.1415926536 3.1415926536
          3.1415926536 3.1415926536 3.1415926536 3.1415926536 3.1415926536 3.1415926536
          3.1415926536 3.1415926536 3.1415926536 3.1415926536 3.1415926536 3.1415926536
          3.1415926536 3.1415926536 3.1415926536 3.1415926536 3.1415926536 3.1415926536
          3.1415926536 3.1415926536 3.1415926536 3.1415926536 3.1415926536 3.1415926536
          3.1415926536 3.1415926536 3.1415926536 3.1415926536 3.1415926536 3.1415926536
          3.1415926536 3.1415926536 3.1415926536 3.1415926536 3.1415926536 3.1415926536
          3.1415926536 3.1415926536 3.1415926536 3.1415926536 3.1415926536 3.1415926536
          3.1415926536 3.1415926536 3.1415926536 3.1415926536 3.1415926536 3.1415926536
          3.1415926536 3.1415926536 3.1415926536 3.1415926536 3.1415926536 3.1415926536
          3.1415926536 3.1415926536 3.1415926536 3.1415926536 3.1415926536 3.1415926536
          3.1415926536 3.1415926536 3.1415926536 3.1415926536 3.1415926536 3.1415926536
          3.1415926536 3.1415926536 3.1415926536 3.1415926536 3.1415926536 3.1415926536
          3.1415926536 3.1415926536 3.1415926536 3.1415926536 3.1415926536 3.1415926536
          3.1415926536 3.1415926536 3.1415926536 3.1415926536 3.1415926536 3.1415926536
          3.1415926536 3.1415926536 3.1415926536 3.1415926536 3.1415926536 3.1415926536
          3.1415926536 3.1415926536 3.1415926536 3.1415926536 3.1415926536 3.1415926536
          3.1415926536 3.1415926536 3.1415926536 3.1415926536 3.1415926536 3.1415926536
          3.1415926536 3.1415926536 3.1415926536 3.1415926536 3.1415926536 3.1415926536
          3.1415926536 3.1415926536 3.1415926536 3.1415926536 3.1415926536 3.1415926536
          3.1415926536 3.1415926536 3.1415926536 3.1415926536 3.1415926536 3.1415926536
          3.1415926536 3.1415926536 3.1415926536 3.1415926536 3.1415926536 3.1415926536
          3.1415926536 3.1415926536 3.1415926536 3.1415926536 3.1415926536 3.1415926536
          3.1415926536 3.1415926536 3.1415926536 3.1415926536 3.1415926536 3.1415926536
          3.1415926536 3.1415926536 3.1415926536 3.1415926536 3.1415926536 3.1415926536
          3.1415926536 3.1415926536 3.1415926536 3.1415926536 3.1415926536 3.1415926536
          3.1415926536 3.1415926536 3.1415926536 3.1415926536 3.1415926536 3.1415926536
          3.1415926536 3.1415926536 3.1415926536 3.1415926536 3.1415926536 3.1415926536
          3.1415926536 3.1415926536 3.1415926536 3.1415926536 3.1415926536 3.1415926536
          3.1415926536 3.1415926536 3.1415926536 3.1415926536 3.1415926536 3.1415926536
          3.1415926536 3.1415926536 3.1415926536 3.1415926536 3.1415926536 3.1415926536
          3.1415926536 3.1415926536 3.1415926536 3.1415926536 3.1415926536 3.1415926536
          3.1415926536 3.1415926536 3.1415926536 3.1415926536 3.1415926536 3.1415926536
          3.1415926536 3.1415926536 3.1415926536 3.1415926536 3.1415926536 3.1415926536
          3.1415926536 3.1415926536 3.1415926536 3.1415926536 3.1415926536 3.1415926536
          3.1415926536 3.1415926536 3.1415926536 3.1415926536 3.1415926536 3.1415926536
          3.1415926536 3.1415926536 3.1415926536 3.1415926536 3.1415926536 3.1415926536
          3.1415926536 3.1415926536 3.1415926536 3.1415926536 3.1415926536 3.1415926536
          3.1415926536 3.1415926536 3.1415926536 3.1415926536 3.1415926536 3.1415926536
          3.1415926536 3.1415926536 3.1415926536 3.1415926536 3.1415926536 3.1415926536
          3.1415926536 3.1415926536 3.1415926536 3.1415926536 3.1415926536 3.1415926536
          3.1415926536 3.1415926536 3.1415926536 3.1415926536 3.1415926536 3.1415926536
          3.1415926536 3.1415926536 3.1415926536 3.1415926536 3.1415926536 3.1415926536
          3.1415926536 3.1415926536 3.1415926536 3.1415926536 3.1415926536 3.1415926536
          3.1415926536 3.1415926536 3.1415926536 3.1415926536 3.1415926536 3.1415926536
          3.1415926536 3.1415926536 3.1415926536 3.1415926536 3.1415926536 3.1415926536
          3.1415926536 3.1415926536 3.1415926536 3.1415926536 3.1415926536 3.1415926536
          3.1415926536 3.1415926536 3.1415926536 3.1415926536 3.1415926536 3.1415926536
          3.1415926536 3.1415926536 3.1415926536 3.1415926536 3.1415926536 3.1415926536
          3.1415926536 3.1415926536 3.1415926536 3.1415926536 3.1415926536 3.1415926536
          3.1415926536 3.1415926536 3.1415926536 3.1415926536 3.1415926536 3.1415926536
          3.1415926536 3.1415926536 3.1415926536 3.1415926536 3.1415926536 3.1415926536
          3.1415926536 3.1415926536 3.1415926536 3.1415926536 3.1415926536 3.1415926536
          3.1415926536 3.1415926536 3.1415926536 3.1415926536 3.1415926536 3.1415926536
          3.1415926536 3.1415926536 3.1415926536 3.1415926536 3.1415926536 3.1415926536
          3.1415926536 3.1415926536 3.1415926536 3.1415926536 3.1415926536 3.1415926536
          3.1415926536 3.1415926536 3.1415926536 3.1415926536 3.1415926536 3.1415926536
          3.1415926536 3.1415926536 3.1415926536 3.1415926536 3.1415926536 3.1415926536
          3.1415926536 3.1415926536 3.1415926536 3.1415926536 3.1415926536 3.1415926536
          3.1415926536 3.1415926536 3.1415926536 3.1415926536 3.1415926536 3.1415926536
          3.1415926536 3.1415926536 3.1415926536 3.1415926536 3.1415926536 3.1415926536
          3.1415926536 3.1415926536 3.1415926536 3.1415926536 3.1415926536 3.1415926536
          3.1415926536 3.1415926536 3.1415926536 3.1415926536 3.1415926536 3.1415926536
          3.1415926536 3.1415926536 3.1415926536 3.1415926536 3.1415926536 3.1415926536
          3.1415926536 3.1415926536 3.1415926536 3.1415926536
        </DataArray>
        <DataArray type="Float64" Name="Velocity" NumberOfComponents="3" format="ascii" RangeMin="0" RangeMax="6.2617250617">
          0 0 0 -1.0341783189 0 0
          0 1.0200734744 0 -0.97814368421 1.0061610016 0
          -0.81611200228 1.9032888448 0 0 1.9296061581 0
          0 2.6300359902 0 -0.56564196084 2.5941657268 0
          -0.25387575853 3.0039246455 0 0 3.0454607615 0
          0 3.1308625066 0 0.085401829624 3.0881616221 0
          0.41542462432 2.8377485035 0 0 2.8769868549 0
          0 2.3113448958 0 0.70042989469 2.2798211635 0
          0.90953269527 1.4748397525 0 0 1.495232779 0
          0 0.51708894187 0 1.0200734864 0.51003652257 0
          1.0200734545 -0.51003709491 0 0 -0.51708952212 0
          0 -1.495232779 0 0.90953269527 -1.4748397525 0
          0.70043003716 -2.2798207705 0 0 -2.3113444973 0
          0 -2.8769868549 0 0.41542462432 -2.8377485035 0
          0.085401829624 -3.0881616221 0 0 -3.1308625066 0
          0 -3.0454606171 0 -0.25387594626 -3.0039245031 0
          -0.56564196084 -2.5941657268 0 0 -2.6300359902 0
          0 -1.9296063903 0 -0.8161119428 -1.9032890738 0
          -0.97814373137 -1.00616059 0 0 -1.0200730571 0
          0 -7.6946827749e-16 0 -1.0341783189 -7.5897373295e-16 0
          -2.0401469488 0 0 -1.9296061581 0.96480307907 0
          -1.6099625962 1.8250547725 0 -1.1158546833 2.4875333837 0
          -0.50082644807 2.8804492947 0 0.16847411993 2.9612237376 0
          0.81951754765 2.7211037692 0 1.3817538875 2.1861098521 0
          1.7942557092 1.4142169415 0 2.0123220267 0.4890716363 0
          2.0123219638 -0.48907218511 0 1.7942557092 -1.4142169415 0
          1.3817541685 -2.1861094752 0 0.81951754765 -2.7211037692 0
          0.16847411993 -2.9612237376 0 -0.50082681841 -2.8804491581 0
          -1.1158546833 -2.4875333837 0 -1.6099624789 -1.8250549921 0
          -1.9296062512 -0.96480268438 0 -2.0401469488 -7.2777636317e-16 0
          -2.990465558 0 0 -2.8284338831 0.89712785461 0
          -2.3598975047 1.6970379844 0 -1.6356297276 2.3130476428 0
          -0.73411586571 2.6784028286 0 0.24695086467 2.7535114225 0
          1.2012561163 2.5302344484 0 2.025387148 2.0327671875 0
          2.6300359902 1.3150179951 0 2.9496795395 0.45476615626 0
          2.9496794474 -0.45476666658 0 2.6300359902 -1.3150179951 0
          2.02538756 -2.0327668371 0 1.2012561163 -2.5302344484 0
          0.24695086467 -2.7535114225 0 -0.73411640855 -2.6784027016 0
          -1.6356297276 -2.3130476428 0 -2.3598973327 -1.6970381885 0
          -2.8284340194 -0.8971274876 0 -2.990465558 -6.7672715966e-16 0
          -3.8592123163 0 0 -3.650109545 0.80498129812 0
          -3.0454607615 1.5227303807 0 -2.1107891956 2.0754679331 0
          -0.94738057857 2.4032964474 0 0.31869145454 2.4706904238 0
          1.5502276516 2.2703468635 0 2.6137732989 1.8239758814 0
          3.3940759687 1.1799487524 0 3.8065777342 0.40805582943 0
          3.8065776153 -0.40805628732 0 3.3940759687 -1.1799487524 0
          2.6137738305 -1.823975567 0 1.5502276516 -2.2703468635 0
          0.31869145454 -2.4706904238 0 -0.94738127911 -2.4032963335 0
          -2.1107891956 -2.0754679331 0 -3.0454605395 -1.5227305639 0
          -3.650109721 -0.80498096881 0 -3.8592123163 -6.0721858613e-16 0
          -4.6226897915 0 0 -4.3722197041 0.69087694373 0
          -3.6479517629 1.3068866494 0 -2.5283718196 1.7812748517 0
          -1.1348032112 2.0626343846 0 0.38173896972 2.1204754109 0
          1.8569130051 1.948530116 0 3.1308625066 1.5654312533 0
          4.065534375 1.012693574 0 4.5596423805 0.35021479997 0
          4.559642238 -0.35021519297 0 4.065534375 -1.012693574 0
          3.1308631434 -1.5654309834 0 1.8569130051 -1.948530116 0
          0.38173896972 -2.1204754109 0 -1.1348040503 -2.0626342868 0
          -2.5283718196 -1.7812748517 0 -3.647951497 -1.3068868066 0
          -4.3722199149 -0.6908766611 0 -4.6226897915 -5.2114666756e-16 0
          -5.2600719804 0 0 -4.9750667674 0.55792734164 0
          -4.1509358662 1.0553945978 0 -2.8769868549 1.4384934274 0
          -1.2912712823 1.6657092546 0 0.43437361126 1.7124195846 0
          2.1129464681 1.5735627562 0 3.5625497033 1.2641859098 0
          4.6260952856 0.81781486379 0 5.1883315143 0.28282086141 0
          5.1883313522 -0.28282117877 0 4.6260952856 -0.81781486379 0
          3.562550428 -1.2641856919 0 2.1129464681 -1.5735627562 0
          0.43437361126 -1.7124195846 0 -1.2912722371 -1.6657091756 0
          -2.8769868549 -1.4384934274 0 -4.1509355637 -1.0553947247 0
          -4.9750670073 -0.5579271134 0 -5.2600719804 -4.208592825e-16 0
          -5.7539734734 0 0 -5.4422073149 0.40975886129 0
          -4.5406935405 0.77511399123 0 -3.1471253831 1.0564734595 0
          -1.4125169261 1.2233476951 0 0.47515970239 1.2576531865 0
          2.3113444024 1.1556724953 0 3.897060072 0.92845670071 0
          5.060468689 0.60062818636 0 5.6754968403 0.20771226909 0
          5.675496663 -0.20771250217 0 5.060468689 -0.60062818636 0
          3.8970608647 -0.92845654066 0 2.3113444024 -1.1556724953 0
          0.47515970239 -1.2576531865 0 -1.4125179706 -1.2233476371 0
          -3.1471253831 -1.0564734595 0 -4.5406932096 -0.77511408447 0
          -5.4422075772 -0.40975869366 0 -5.7539734734 -3.090918969e-16 0
          -6.0909215229 0 0 -5.7608985894 0.25041322404 0
          -4.8065928949 0.47369028929 0 -3.3314185092 0.64563564113 0
          -1.495232779 0.7476163895 0 0.50298467163 0.76858127768 0
          2.4466948679 0.70625849208 0 4.1252687692 0.5674016056 0
          5.3568056572 0.36705793286 0 6.0078493614 0.12693782585 0
          6.0078491737 -0.12693796829 0 5.3568056572 -0.36705793286 0
          4.1252696083 -0.56740150779 0 2.4466948679 -0.70625849208 0
          0.50298467163 -0.76858127768 0 -1.4952338846 -0.74761635405 0
          -3.3314185092 -0.64563564113 0 -4.8065925446 -0.47369034627 0
          -5.7608988671 -0.2504131216 0 -6.0909215229 -1.8889328759e-16 0
          -6.2617250617 0 0 -5.9224475212 0.084236964783 0
          -4.941380886 0.15934554723 0 -3.4248391958 0.21718656023 0
          -1.5371625673 0.25149205165 0 0.51708952613 0.25854446893 0
          2.5153058556 0.23757959251 0 4.2409508547 0.1908692692 0
          5.5070228878 0.12347529282 0 6.1763233645 0.042700848595 0
          6.1763231715 -0.042700896512 0 5.5070228878 -0.12347529282 0
          4.2409517173 -0.19086923629 0 2.5153058556 -0.23757959251 0
          0.51708952613 -0.25854446893 0 -1.5371637039 -0.25149203973 0
          -3.4248391958 -0.21718656023 0 -4.9413805259 -0.15934556639 0
          -5.9224478067 -0.084236930323 0 -6.2617250617 -6.3542160265e-17 0
          -6.2617250131 0 0 -5.9224474752 -0.084237059963 0
          -4.9413808476 -0.15934572727 0 -3.4248391693 -0.21718680563 0
          -1.5371625554 -0.25149233581 0 0.51708952212 -0.25854476106 0
          2.5153058361 -0.23757986095 0 4.2409508218 -0.19086948486 0
          5.5070228451 -0.12347543233 0 6.1763233166 -0.042700896843 0
          6.1763231236 0.04270094476 0 5.5070228451 0.12347543233 0
          4.2409516844 0.19086945196 0 2.5153058361 0.23757986095 0
          0.51708952212 0.25854476106 0 -1.537163692 0.25149232389 0
          -3.4248391693 0.21718680563 0 -4.9413804875 0.15934574644 0
          -5.9224477607 0.084237025503 0 -6.2617250131 6.3542232062e-17 0
          -6.0909215229 0 0 -5.7608985894 -0.25041322404 0
          -4.8065928949 -0.47369028929 0 -3.3314185092 -0.64563564113 0
          -1.495232779 -0.7476163895 0 0.50298467163 -0.76858127768 0
          2.4466948679 -0.70625849208 0 4.1252687692 -0.5674016056 0
          5.3568056572 -0.36705793286 0 6.0078493614 -0.12693782585 0
          6.0078491737 0.12693796829 0 5.3568056572 0.36705793286 0
          4.1252696083 0.56740150779 0 2.4466948679 0.70625849208 0
          0.50298467163 0.76858127768 0 -1.4952338846 0.74761635405 0
          -3.3314185092 0.64563564113 0 -4.8065925446 0.47369034627 0
          -5.7608988671 0.2504131216 0 -6.0909215229 1.8889328759e-16 0
          -5.7539737097 0 0 -5.4422075384 -0.40975877382 0
          -4.5406937269 -0.77511382579 0 -3.1471255123 -1.056473234 0
          -1.4125169842 -1.2233474339 0 0.4751597219 -1.257652918 0
          2.3113444973 -1.1556722487 0 3.8970602321 -0.92845650253 0
          5.0604688968 -0.60062805816 0 5.6754970734 -0.20771222475 0
          5.6754968961 0.20771245784 0 5.0604688968 0.60062805816 0
          3.8970610248 0.92845634249 0 2.3113444973 1.1556722487 0
          0.4751597219 1.257652918 0 -1.4125180286 1.2233473759 0
          -3.1471255123 1.056473234 0 -4.5406933961 0.77511391903 0
          -5.4422078007 0.4097586062 0 -5.7539737097 3.0909183093e-16 0
          -5.2600719804 0 0 -4.9750667674 -0.55792734164 0
          -4.1509358662 -1.0553945978 0 -2.8769868549 -1.4384934274 0
          -1.2912712823 -1.6657092546 0 0.43437361126 -1.7124195846 0
          2.1129464681 -1.5735627562 0 3.5625497033 -1.2641859098 0
          4.6260952856 -0.81781486379 0 5.1883315143 -0.28282086141 0
          5.1883313522 0.28282117877 0 4.6260952856 0.81781486379 0
          3.562550428 1.2641856919 0 2.1129464681 1.5735627562 0
          0.43437361126 1.7124195846 0 -1.2912722371 1.6657091756 0
          -2.8769868549 1.4384934274 0 -4.1509355637 1.0553947247 0
          -4.9750670073 0.5579271134 0 -5.2600719804 4.208592825e-16 0
          -4.6226897915 0 0 -4.3722197041 -0.69087694373 0
          -3.6479517629 -1.3068866494 0 -2.5283718196 -1.7812748517 0
          -1.1348032112 -2.0626343846 0 0.38173896972 -2.1204754109 0
          1.8569130051 -1.948530116 0 3.1308625066 -1.5654312533 0
          4.065534375 -1.012693574 0 4.5596423805 -0.35021479997 0
          4.559642238 0.35021519297 0 4.065534375 1.012693574 0
          3.1308631434 1.5654309834 0 1.8569130051 1.948530116 0
          0.38173896972 2.1204754109 0 -1.1348040503 2.0626342868 0
          -2.5283718196 1.7812748517 0 -3.647951497 1.3068868066 0
          -4.3722199149 0.6908766611 0 -4.6226897915 5.2114666756e-16 0
          -3.8592118521 0 0 -3.650109106 -0.80498135678 0
          -3.0454603951 -1.5227304917 0 -2.1107889417 -2.0754680843 0
          -0.94738046461 -2.4032966226 0 0.31869141621 -2.4706906039 0
          1.5502274651 -2.2703470289 0 2.6137729844 -1.8239760143 0
          3.3940755604 -1.1799488383 0 3.8065772763 -0.40805585916 0
          3.8065771574 0.40805631706 0 3.3940755604 1.1799488383 0
          2.6137735161 1.8239756999 0 1.5502274651 2.2703470289 0
          0.31869141621 2.4706906039 0 -0.94738116515 2.4032965086 0
          -2.1107889417 2.0754680843 0 -3.0454601732 1.5227306749 0
          -3.6501092819 0.80498102747 0 -3.8592118521 6.0721863038e-16 0
          -2.990465558 0 0 -2.8284338831 -0.89712785461 0
          -2.3598975047 -1.6970379844 0 -1.6356297276 -2.3130476428 0
          -0.73411586571 -2.6784028286 0 0.24695086467 -2.7535114225 0
          1.2012561163 -2.5302344484 0 2.025387148 -2.0327671875 0
          2.6300359902 -1.3150179951 0 2.9496795395 -0.45476615626 0
          2.9496794474 0.45476666658 0 2.6300359902 1.3150179951 0
          2.02538756 2.0327668371 0 1.2012561163 2.5302344484 0
          0.24695086467 2.7535114225 0 -0.73411640855 2.6784027016 0
          -1.6356297276 2.3130476428 0 -2.3598973327 1.6970381885 0
          -2.8284340194 0.8971274876 0 -2.990465558 6.7672715966e-16 0
          -2.040147227 0 0 -1.9296064213 -0.96480306357 0
          -1.6099628158 -1.8250547432 0 -1.1158548354 -2.4875333437 0
          -0.50082651637 -2.8804492484 0 0.1684741429 -2.96122369 0
          0.8195176594 -2.7211037255 0 1.3817540759 -2.1861098169 0
          1.7942559539 -1.4142169188 0 2.0123223011 -0.48907162844 0
          2.0123222382 0.48907217725 0 1.7942559539 1.4142169188 0
          1.3817543569 2.1861094401 0 0.8195176594 2.7211037255 0
          0.1684741429 2.96122369 0 -0.5008268867 2.8804491118 0
          -1.1158548354 2.4875333437 0 -1.6099626985 1.8250549627 0
          -1.9296065143 0.96480266888 0 -2.040147227 7.2777635148e-16 0
          -1.0341778837 0 0 -0.9781432726 -1.0061610134 0
          -0.81611165885 -1.9032888671 0 -0.56564172281 -2.5941657572 0
          -0.2538756517 -3.0039246807 0 0.085401793686 -3.0881616583 0
          0.4154244495 -2.8377485367 0 0.70042959994 -2.2798211902 0
          0.90953231253 -1.4748397698 0 1.0200730571 -0.51003652855 0
          1.0200730252 0.51003710089 0 0.90953231253 1.4748397698 0
          0.70042974242 2.2798207972 0 0.4154244495 2.8377485367 0
          0.085401793686 3.0881616583 0 -0.25387583943 3.0039245383 0
          -0.56564172281 2.5941657572 0 -0.81611159938 1.9032890961 0
          -0.97814331976 1.0061606017 0 -1.0341778837 7.5897374185e-16 0
          -7.6946827749e-16 0 0 -7.2777636317e-16 -1.0200734744 0
          -6.0721858613e-16 -1.9296061581 0 -4.208592825e-16 -2.6300359902 0
          -1.8889328759e-16 -3.0454607615 0 6.3542232062e-17 -3.1308625066 0
          3.0909183093e-16 -2.8769868549 0 5.2114666756e-16 -2.3113448958 0
          6.7672715966e-16 -1.495232779 0 7.5897374185e-16 -0.51708894187 0
          7.5897371813e-16 0.51708952212 0 6.7672715966e-16 1.495232779 0
          5.2114677356e-16 2.3113444973 0 3.0909183093e-16 2.8769868549 0
          6.3542232062e-17 3.1308625066 0 -1.8889342726e-16 3.0454606171 0
          -4.208592825e-16 2.6300359902 0 -6.0721854188e-16 1.9296063903 0
          -7.2777639826e-16 1.0200730571 0 -7.6946827749e-16 7.6946827749e-16 0
        </DataArray>
      </PointData>
      <CellData>
        <DataArray type="Int32" Name="ElementaryEntities" format="ascii" RangeMin="1" RangeMax="1">
          1 1 1 1 1 1
          1 1 1 1 1 1
          1 1 1 1 1 1
          1 1 1 1 1 1
          1 1 1 1 1 1
          1 1 1 1 1 1
          1 1 1 1 1 1
          1 1 1 1 1 1
          1 1 1 1 1 1
          1 1 1 1 1 1
          1 1 1 1 1 1
          1 1 1 1 1 1
          1 1 1 1 1 1
          1 1 1 1 1 1
          1 1 1 1 1 1
          1 1 1 1 1 1
          1 1 1 1 1 1
          1 1 1 1 1 1
          1 1 1 1 1 1
          1 1 1 1 1 1
          1 1 1 1 1 1
          1 1 1 1 1 1
          1 1 1 1 1 1
          1 1 1 1 1 1
          1 1 1 1 1 1
          1 1 1 1 1 1
          1 1 1 1 1 1
          1 1 1 1 1 1
          1 1 1 1 1 1
          1 1 1 1 1 1
          1 1 1 1 1 1
          1 1 1 1 1 1
          1 1 1 1 1 1
          1 1 1 1 1 1
          1 1 1 1 1 1
          1 1 1 1 1 1
          1 1 1 1 1 1
          1 1 1 1 1 1
          1 1 1 1 1 1
          1 1 1 1 1 1
          1 1 1 1 1 1
          1 1 1 1 1 1
          1 1 1 1 1 1
          1 1 1 1 1 1
          1 1 1 1 1 1
          1 1 1 1 1 1
          1 1 1 1 1 1
          1 1 1 1 1 1
          1 1 1 1 1 1
          1 1 1 1 1 1
          1 1 1 1 1 1
          1 1 1 1 1 1
          1 1 1 1 1 1
          1 1 1 1 1 1
          1 1 1 1 1 1
          1 1 1 1 1 1
          1 1 1 1 1 1
          1 1 1 1 1 1
          1 1 1 1 1 1
          1 1 1 1 1 1
          1 1 1 1 1 1
          1 1 1 1 1 1
          1 1 1 1 1 1
          1 1 1 1 1 1
          1 1 1 1 1 1
          1 1 1 1 1 1
          1 1 1 1 1 1
          1 1 1 1 1 1
          1 1 1 1 1 1
          1 1 1 1 1 1
          1 1 1 1 1 1
          1 1 1 1 1 1
          1 1 1 1 1 1
          1 1 1 1 1 1
          1 1 1 1 1 1
          1 1 1 1 1 1
          1 1 1 1 1 1
          1 1 1 1 1 1
          1 1 1 1 1 1
          1 1 1 1 1 1
          1 1 1 1 1 1
          1 1 1 1 1 1
          1 1 1 1 1 1
          1 1 1 1 1 1
          1 1 1 1 1 1
          1 1 1 1 1 1
          1 1 1 1 1 1
          1 1 1 1 1 1
          1 1 1 1 1 1
          1 1 1 1 1 1
          1 1 1 1 1 1
          1 1 1 1 1 1
          1 1 1 1 1 1
          1 1 1 1 1 1
          1 1 1 1 1 1
          1 1 1 1 1 1
          1 1 1 1 1 1
          1 1 1 1 1 1
          1 1 1 1 1 1
          1 1 1 1 1 1
          1 1 1 1 1 1
          1 1 1 1 1 1
          1 1 1 1 1 1
          1 1 1 1 1 1
          1 1 1 1 1 1
          1 1 1 1 1 1
          1 1 1 1 1 1
          1 1 1 1 1 1
          1 1 1 1 1 1
          1 1 1 1 1 1
          1 1 1 1 1 1
          1 1 1 1 1 1
          1 1 1 1 1 1
          1 1 1 1 1 1
          1 1 1 1 1 1
          1 1 1 1 1 1
          1 1 1 1 1 1
          1 1 1 1 1 1
          1 1 1 1 1 1
          1 1 1 1 1 1
          1 1
        </DataArray>
        <DataArray type="Int32" Name="PhysicalIds" format="ascii" RangeMin="1" RangeMax="1">
          1 1 1 1 1 1
          1 1 1 1 1 1
          1 1 1 1 1 1
          1 1 1 1 1 1
          1 1 1 1 1 1
          1 1 1 1 1 1
          1 1 1 1 1 1
          1 1 1 1 1 1
          1 1 1 1 1 1
          1 1 1 1 1 1
          1 1 1 1 1 1
          1 1 1 1 1 1
          1 1 1 1 1 1
          1 1 1 1 1 1
          1 1 1 1 1 1
          1 1 1 1 1 1
          1 1 1 1 1 1
          1 1 1 1 1 1
          1 1 1 1 1 1
          1 1 1 1 1 1
          1 1 1 1 1 1
          1 1 1 1 1 1
          1 1 1 1 1 1
          1 1 1 1 1 1
          1 1 1 1 1 1
          1 1 1 1 1 1
          1 1 1 1 1 1
          1 1 1 1 1 1
          1 1 1 1 1 1
          1 1 1 1 1 1
          1 1 1 1 1 1
          1 1 1 1 1 1
          1 1 1 1 1 1
          1 1 1 1 1 1
          1 1 1 1 1 1
          1 1 1 1 1 1
          1 1 1 1 1 1
          1 1 1 1 1 1
          1 1 1 1 1 1
          1 1 1 1 1 1
          1 1 1 1 1 1
          1 1 1 1 1 1
          1 1 1 1 1 1
          1 1 1 1 1 1
          1 1 1 1 1 1
          1 1 1 1 1 1
          1 1 1 1 1 1
          1 1 1 1 1 1
          1 1 1 1 1 1
          1 1 1 1 1 1
          1 1 1 1 1 1
          1 1 1 1 1 1
          1 1 1 1 1 1
          1 1 1 1 1 1
          1 1 1 1 1 1
          1 1 1 1 1 1
          1 1 1 1 1 1
          1 1 1 1 1 1
          1 1 1 1 1 1
          1 1 1 1 1 1
          1 1 1 1 1 1
          1 1 1 1 1 1
          1 1 1 1 1 1
          1 1 1 1 1 1
          1 1 1 1 1 1
          1 1 1 1 1 1
          1 1 1 1 1 1
          1 1 1 1 1 1
          1 1 1 1 1 1
          1 1 1 1 1 1
          1 1 1 1 1 1
          1 1 1 1 1 1
          1 1 1 1 1 1
          1 1 1 1 1 1
          1 1 1 1 1 1
          1 1 1 1 1 1
          1 1 1 1 1 1
          1 1 1 1 1 1
          1 1 1 1 1 1
          1 1 1 1 1 1
          1 1 1 1 1 1
          1 1 1 1 1 1
          1 1 1 1 1 1
          1 1 1 1 1 1
          1 1 1 1 1 1
          1 1 1 1 1 1
          1 1 1 1 1 1
          1 1 1 1 1 1
          1 1 1 1 1 1
          1 1 1 1 1 1
          1 1 1 1 1 1
          1 1 1 1 1 1
          1 1 1 1 1 1
          1 1 1 1 1 1
          1 1 1 1 1 1
          1 1 1 1 1 1
          1 1 1 1 1 1
          1 1 1 1 1 1
          1 1 1 1 1 1
          1 1 1 1 1 1
          1 1 1 1 1 1
          1 1 1 1 1 1
          1 1 1 1 1 1
          1 1 1 1 1 1
          1 1 1 1 1 1
          1 1 1 1 1 1
          1 1 1 1 1 1
          1 1 1 1 1 1
          1 1 1 1 1 1
          1 1 1 1 1 1
          1 1 1 1 1 1
          1 1 1 1 1 1
          1 1 1 1 1 1
          1 1 1 1 1 1
          1 1 1 1 1 1
          1 1 1 1 1 1
          1 1 1 1 1 1
          1 1 1 1 1 1
          1 1 1 1 1 1
          1 1 1 1 1 1
          1 1
        </DataArray>
      </CellData>
      <Points>
        <DataArray type="Float32" Name="Points" NumberOfComponents="3" format="ascii" RangeMin="0" RangeMax="1.4142135624">
          0 0 0 0.05263157934 0 0
          0 0.05263157934 0 0.05263157934 0.05263157934 0
          0.05263157934 0.10526315868 0 0 0.10526315868 0
          0 0.15789473057 0 0.05263157934 0.15789473057 0
          0.05263157934 0.21052631736 0 0 0.21052631736 0
          0 0.26315790415 0 0.05263157934 0.26315790415 0
          0.05263157934 0.31578946114 0 0 0.31578946114 0
          0 0.36842104793 0 0.05263157934 0.36842104793 0
          0.05263157934 0.42105263472 0 0 0.42105263472 0
          0 0.47368422151 0 0.05263157934 0.47368422151 0
          0.05263157934 0.5263158083 0 0 0.5263158083 0
          0 0.57894736528 0 0.05263157934 0.57894736528 0
          0.05263157934 0.63157892227 0 0 0.63157892227 0
          0 0.68421053886 0 0.05263157934 0.68421053886 0
          0.05263157934 0.73684209585 0 0 0.73684209585 0
          0 0.78947371244 0 0.05263157934 0.78947371244 0
          0.05263157934 0.84210526943 0 0 0.84210526943 0
          0 0.89473682642 0 0.05263157934 0.89473682642 0
          0.05263157934 0.94736844301 0 0 0.94736844301 0
          0 1 0 0.05263157934 1 0
          0.10526315868 0 0 0.10526315868 0.05263157934 0
          0.10526315868 0.10526315868 0 0.10526315868 0.15789473057 0
          0.10526315868 0.21052631736 0 0.10526315868 0.26315790415 0