<VTKFile type="UnstructuredGrid" version="0.1" byte_order="LittleEndian">
  <UnstructuredGrid>
    <Piece NumberOfPoints="400" NumberOfCells="76">
      <PointData>
      </PointData>
      <CellData>
        <DataArray type="Int32" Name="ElementaryEntities" format="ascii" RangeMin="1" RangeMax="4">
          1 1 1 1 1 1
          1 1 1 1 1 1
          1 1 1 1 1 1
          1 2 2 2 2 2
          2 2 2 2 2 2
          2 2 2 2 2 2
          2 2 3 3 3 3
          3 3 3 3 3 3
          3 3 3 3 3 3
          3 3 3 4 4 4
          4 4 4 4 4 4
          4 4 4 4 4 4
          4 4 4 4
        </DataArray>
        <DataArray type="Int32" Name="PhysicalIds" format="ascii" RangeMin="1" RangeMax="1">
          1 1 1 1 1 1
          1 1 1 1 1 1
          1 1 1 1 1 1
          1 1 1 1 1 1
          1 1 1 1 1 1
          1 1 1 1 1 1
          1 1 1 1 1 1
          1 1 1 1 1 1
          1 1 1 1 1 1
          1 1 1 1 1 1
          1 1 1 1 1 1
          1 1 1 1 1 1
          1 1 1 1
        </DataArray>
      </CellData>
      <Points>
        <DataArray type="Float32" Name="Points" NumberOfComponents="3" format="ascii" RangeMin="0" RangeMax="1.4142135624">
          0 0 0 1 0 0
          1 1 0 0 1 0
          0.05263157934 0 0 0.10526315868 0 0
          0.15789473057 0 0 0.21052631736 0 0
          0.26315790415 0 0 0.31578946114 0 0
          0.36842104793 0 0 0.42105263472 0 0
          0.47368422151 0 0 0.5263158083 0 0
          0.57894736528 0 0 0.63157892227 0 0
          0.68421053886 0 0 0.73684209585 0 0
          0.78947371244 0 0 0.84210526943 0 0
          0.89473682642 0 0 0.94736844301 0 0
          1 0.05263157934 0 1 0.10526315868 0
          1 0.15789473057 0 1 0.21052631736 0
          1 0.26315790415 0 1 0.31578946114 0
          1 0.36842104793 0 1 0.42105263472 0
          1 0.47368422151 0 1 0.5263158083 0
          1 0.57894736528 0 1 0.63157892227 0
          1 0.68421053886 0 1 0.73684209585 0
          1 0.78947371244 0 1 0.84210526943 0
          1 0.89473682642 0 1 0.94736844301 0
          0.94736844301 1 0 0.89473682642 1 0
          0.84210526943 1 0 0.78947371244 1 0
          0.73684209585 1 0 0.68421053886 1 0
          0.63157892227 1 0 0.57894736528 1 0
          0.5263158083 1 0 0.47368422151 1 0
          0.42105263472 1 0 0.36842104793 1 0
          0.31578946114 1 0 0.26315790415 1 0
          0.21052631736 1 0 0.15789473057 1 0
          0.10526315868 1 0 0.05263157934 1 0
          0 0.94736844301 0 0 0.89473682642 0
          0 0.84210526943 0 0 0.78947371244 0
          0 0.73684209585 0 0 0.68421053886 0
          0 0.63157892227 0 0 0.57894736528 0
          0 0.5263158083 0 0 0.47368422151 0
          0 0.42105263472 0 0 0.36842104793 0
          0 0.31578946114 0 0 0.26315790415 0
          0 0.21052631736 0 0 0.15789473057 0
          0 0.10526315868 0 0 0.05263157934 0
          0.05263157934 0.05263157934 0 0.05263157934 0.10526315868 0
          0.05263157934 0.15789473057 0 0.05263157934 0.21052631736 0
          0.05263157934 0.26315790415 0 0.05263157934 0.31578946114 0
          0.05263157934 0.36842104793 0 0.05263157934 0.42105263472 0
          0.05263157934 0.47368422151 0 0.05263157934 0.5263158083 0
          0.05263157934 0.57894736528 0 0.05263157934 0.63157892227 0
          0.05263157934 0.68421053886 0 0.05263157934 0.73684209585 0
          0.05263157934 0.78947371244 0 0.05263157934 0.84210526943 0
          0.05263157934 0.89473682642 0 0.05263157934 0.94736844301 0
          0.10526315868 0.05263157934 0 0.10526315868 0.10526315868 0
          0.10526315868 0.15789473057 0 0.10526315868 0.21052631736 0
          0.10526315868 0.26315790415 0 0.10526315868 0.31578946114 0
          0.10526315868 0.36842104793 0 0.10526315868 0.42105263472 0
          0.10526315868 0.47368422151 0 0.10526315868 0.5263158083 0
          0.10526315868 0.57894736528 0 0.10526315868 0.63157892227 0
          0.10526315868 0.68421053886 0 0.10526315868 0.73684209585 0
          0.10526315868 0.78947371244 0 0.10526315868 0.84210526943 0
          0.10526315868 0.89473682642 0 0.10526315868 0.94736844301 0
          0.15789473057 0.05263157934 0 0.15789473057 0.10526315868 0
          0.15789473057 0.15789473057 0 0.15789473057 0.21052631736 0
          0.15789473057 0.26315790415 0 0.15789473057 0.31578946114 0
          0.15789473057 0.36842104793 0 0.15789473057 0.42105263472 0
          0.15789473057 0.47368422151 0 0.15789473057 0.5263158083 0
          0.15789473057 0.57894736528 0 0.15789473057 0.63157892227 0
          0.15789473057 0.68421053886 0 0.15789473057 0.73684209585 0
          0.15789473057 0.78947371244 0 0.15789473057 0.84210526943 0
          0.15789473057 0.89473682642 0 0.15789473057 0.94736844301 0
          0.21052631736 0.05263157934 0 0.21052631736 0.10526315868 0
          0.21052631736 0.15789473057 0 0.21052631736 0.21052631736 0
          0.21052631736 0.26315790415 0 0.21052631736 0.31578946114 0
          0.21052631736 0.36842104793 0 0.21052631736 0.42105263472 0
          0.21052631736 0.47368422151 0 0.21052631736 0.5263158083 0
          0.21052631736 0.57894736528 0 0.21052631736 0.63157892227 0
          0.21052631736 0.68421053886 0 0.21052631736 0.73684209585 0
          0.21052631736 0.78947371244 0 0.21052631736 0.84210526943 0
          0.21052631736 0.89473682642 0 0.21052631736 0.94736844301 0
          0.26315790415 0.05263157934 0 0.26315790415 0.10526315868 0
          0.26315790415 0.15789473057 0 0.26315790415 0.21052631736 0
          0.26315790415 0.26315790415 0 0.26315790415 0.31578946114 0
          0.26315790415 0.36842104793 0 0.26315790415 0.42105263472 0
          0.26315790415 0.47368422151 0 0.26315790415 0.5263158083 0
          0.26315790415 0.57894736528 0 0.26315790415 0.63157892227 0
          0.26315790415 0.68421053886 0 0.26315790415 0.73684209585 0
          0.26315790415 0.78947371244 0 0.26315790415 0.84210526943 0
          0.26315790415 0.89473682642 0 0.26315790415 0.94736844301 0
          0.31578946114 0.05263157934 0 0.31578946114 0.10526315868 0
          0.31578946114 0.15789473057 0 0.31578946114 0.21052631736 0
          0.31578946114 0.26315790415 0 0.31578946114 0.31578946114 0
          0.31578946114 0.36842104793 0 0.31578946114 0.42105263472 0
          0.31578946114 0.47368422151 0 0.31578946114 0.5263158083 0
          0.31578946114 0.57894736528 0 0.31578946114 0.63157892227 0
          0.31578946114 0.68421053886 0 0.31578946114 0.73684209585 0
          0.31578946114 0.78947371244 0 0.31578946114 0.84210526943 0
          0.31578946114 0.89473682642 0 0.31578946114 0.94736844301 0
          0.36842104793 0.05263157934 0 0.36842104793 0.10526315868 0
          0.36842104793 0.15789473057 0 0.36842104793 0.21052631736 0
          0.36842104793 0.26315790415 0 0.36842104793 0.31578946114 0
          0.36842104793 0.36842104793 0 0.36842104793 0.42105263472 0
          0.36842104793 0.47368422151 0 0.36842104793 0.5263158083 0
          0.36842104793 0.57894736528 0 0.36842104793 0.63157892227 0
          0.36842104793 0.68421053886 0 0.36842104793 0.73684209585 0
          0.36842104793 0.78947371244 0 0.36842104793 0.84210526943 0
          0.36842104793 0.89473682642 0 0.36842104793 0.94736844301 0
          0.42105263472 0.05263157934 0 0.42105263472 0.10526315868 0
          0.42105263472 0.15789473057 0 0.42105263472 0.21052631736 0
          0.42105263472 0.26315790415 0 0.42105263472 0.31578946114 0
          0.42105263472 0.36842104793 0 0.42105263472 0.42105263472 0
          0.42105263472 0.47368422151 0 0.42105263472 0.5263158083 0
          0.42105263472 0.57894736528 0 0.42105263472 0.63157892227 0
          0.42105263472 0.68421053886 0 0.42105263472 0.73684209585 0
          0.42105263472 0.78947371244 0 0.42105263472 0.84210526943 0
          0.42105263472 0.89473682642 0 0.42105263472 0.94736844301 0
          0.47368422151 0.05263157934 0 0.47368422151 0.10526315868 0
          0.47368422151 0.15789473057 0 0.47368422151 0.21052631736 0
          0.47368422151 0.26315790415 0 0.47368422151 0.31578946114 0
          0.47368422151 0.36842104793 0 0.47368422151 0.42105263472 0
          0.47368422151 0.47368422151 0 0.47368422151 0.5263158083 0
          0.47368422151 0.57894736528 0 0.47368422151 0.63157892227 0
          0.47368422151 0.68421053886 0 0.47368422151 0.73684209585 0
          0.47368422151 0.78947371244 0 0.47368422151 0.84210526943 0
          0.47368422151 0.89473682642 0 0.47368422151 0.94736844301 0
          0.5263158083 0.05263157934 0 0.5263158083 0.10526315868 0
          0.5263158083 0.15789473057 0 0.5263158083 0.21052631736 0
          0.5263158083 0.26315790415 0 0.5263158083 0.31578946114 0
          0.5263158083 0.36842104793 0 0.5263158083 0.42105263472 0
          0.5263158083 0.47368422151 0 0.5263158083 0.5263158083 0
          0.5263158083 0.57894736528 0 0.5263158083 0.63157892227 0
          0.5263158083 0.68421053886 0 0.5263158083 0.73684209585 0
          0.5263158083 0.78947371244 0 0.5263158083 0.84210526943 0
          0.5263158083 0.89473682642 0 0.5263158083 0.94736844301 0
          0.57894736528 0.05263157934 0 0.57894736528 0.10526315868 0
          0.57894736528 0.15789473057 0 0.57894736528 0.21052631736 0
          0.57894736528 0.26315790415 0 0.57894736528 0.31578946114 0
          0.57894736528 0.36842104793 0 0.57894736528 0.42105263472 0
          0.57894736528 0.47368422151 0 0.57894736528 0.5263158083 0
          0.57894736528 0.57894736528 0 0.57894736528 0.63157892227 0
          0.57894736528 0.68421053886 0 0.57894736528 0.73684209585 0
          0.57894736528 0.78947371244 0 0.57894736528 0.84210526943 0
          0.57894736528 0.89473682642 0 0.57894736528 0.94736844301 0
          0.63157892227 0.05263157934 0 0.63157892227 0.10526315868 0
          0.63157892227 0.15789473057 0 0.63157892227 0.21052631736 0
          0.63157892227 0.26315790415 0 0.63157892227 0.31578946114 0
          0.63157892227 0.36842104793 0 0.63157892227 0.42105263472 0
          0.63157892227 0.47368422151 0 0.63157892227 0.5263158083 0
          0.63157892227 0.57894736528 0 0.63157892227 0.63157892227 0
          0.63157892227 0.68421053886 0 0.63157892227 0.73684209585 0
          0.63157892227 0.78947371244 0 0.63157892227 0.84210526943 0
          0.63157892227 0.89473682642 0 0.63157892227 0.94736844301 0
          0.68421053886 0.05263157934 0 0.68421053886 0.10526315868 0
          0.68421053886 0.15789473057 0 0.68421053886 0.21052631736 0
          0.68421053886 0.26315790415 0 0.68421053886 0.31578946114 0
          0.68421053886 0.36842104793 0 0.68421053886 0.42105263472 0
          0.68421053886 0.47368422151 0 0.68421053886 0.5263158083 0
          0.68421053886 0.57894736528 0 0.68421053886 0.63157892227 0
          0.68421053886 0.68421053886 0 0.68421053886 0.73684209585 0
          0.68421053886 0.78947371244 0 0.68421053886 0.84210526943 0
          0.68421053886 0.89473682642 0 0.68421053886 0.94736844301 0
          0.73684209585 0.05263157934 0 0.73684209585 0.10526315868 0
          0.73684209585 0.15789473057 0 0.73684209585 0.21052631736 0
          0.73684209585 0.26315790415 0 0.73684209585 0.31578946114 0
          0.73684209585 0.36842104793 0 0.73684209585 0.42105263472 0
          0.73684209585 0.47368422151 0 0.73684209585 0.5263158083 0
          0.73684209585 0.57894736528 0 0.73684209585 0.63157892227 0
          0.73684209585 0.68421053886 0 0.73684209585 0.73684209585 0
          0.73684209585 0.78947371244 0 0.73684209585 0.84210526943 0
          0.73684209585 0.89473682642 0 0.73684209585 0.94736844301 0
          0.78947371244 0.05263157934 0 0.78947371244 0.10526315868 0
          0.78947371244 0.15789473057 0 0.78947371244 0.21052631736 0
          0.78947371244 0.26315790415 0 0.78947371244 0.31578946114 0
          0.78947371244 0.36842104793 0 0.78947371244 0.42105263472 0
          0.78947371244 0.47368422151 0 0.78947371244 0.5263158083 0
          0.78947371244 0.57894736528 0 0.78947371244 0.63157892227 0
          0.78947371244 0.68421053886 0 0.78947371244 0.73684209585 0
          0.78947371244 0.78947371244 0 0.78947371244 0.84210526943 0
          0.78947371244 0.89473682642 0 0.78947371244 0.94736844301 0
          0.84210526943 0.05263157934 0 0.84210526943 0.10526315868 0
          0.84210526943 0.15789473057 0 0.84210526943 0.21052631736 0
          0.84210526943 0.26315790415 0 0.84210526943 0.31578946114 0
          0.84210526943 0.36842104793 0 0.84210526943 0.42105263472 0
          0.84210526943 0.47368422151 0 0.84210526943 0.5263158083 0
          0.84210526943 0.57894736528 0 0.84210526943 0.63157892227 0
          0.84210526943 0.68421053886 0 0.84210526943 0.73684209585 0
          0.84210526943 0.78947371244 0 0.84210526943 0.84210526943 0
          0.84210526943 0.89473682642 0 0.84210526943 0.94736844301 0
          0.89473682642 0.05263157934 0 0.89473682642 0.10526315868 0
          0.89473682642 0.15789473057 0 0.89473682642 0.21052631736 0
          0.89473682642 0.26315790415 0 0.89473682642 0.31578946114 0
          0.89473682642 0.36842104793 0 0.89473682642 0.42105263472 0
          0.89473682642 0.47368422151 0 0.89473682642 0.5263158083 0
          0.89473682642 0.57894736528 0 0.89473682642 0.63157892227 0
          0.89473682642 0.68421053886 0 0.89473682642 0.73684209585 0
          0.89473682642 0.78947371244 0 0.89473682642 0.84210526943 0
          0.89473682642 0.89473682642 0 0.89473682642 0.94736844301 0
          0.94736844301 0.05263157934 0 0.94736844301 0.10526315868 0
          0.94736844301 0.15789473057 0 0.94736844301 0.21052631736 0
          0.94736844301 0.26315790415 0 0.94736844301 0.31578946114 0
          0.94736844301 0.36842104793 0 0.94736844301 0.42105263472 0
          0.94736844301 0.47368422151 0 0.94736844301 0.5263158083 0
          0.94736844301 0.57894736528 0 0.94736844301 0.63157892227 0
          0.94736844301 0.68421053886 0 0.94736844301 0.73684209585 0
          0.94736844301 0.78947371244 0 0.94736844301 0.84210526943 0
          0.94736844301 0.89473682642 0 0.94736844301 0.94736844301 0
        </DataArray>
      </Points>
      <Cells>
        <DataArray type="Int64" Name="connectivity" format="ascii" RangeMin="0" RangeMax="75">
          0 4 4 5 5 6
          6 7 7 8 8 9
          9 10 10 11 11 12
          12 13 13 14 14 15
          15 16 16 17 17 18
          18 19 19 20 20 21
          21 1 1 22 22 23
          23 24 24 25 25 26
          26 27 27 28 28 29
          29 30 30 31 31 32
          32 33 33 34 34 35
          35 36 36 37 37 38
          38 39 39 2 2 40
          40 41 41 42 42 43
          43 44 44 45 45 46
          46 47 47 48 48 49
          49 50 50 51 51 52
          52 53 53 54 54 55
          55 56 56 57 57 3
          3 58 58 59 59 60
          60 61 61 62 62 63
          63 64 64 65 65 66
          66 67 67 68 68 69
          69 70 70 71 71 72
          72 73 73 74 74 75
          75 0
        </DataArray>
        <DataArray type="Int64" Name="offsets" format="ascii" RangeMin="2" RangeMax="152">
          2 4 6 8 10 12
          14 16 18 20 22 24
          26 28 30 32 34 36
          38 40 42 44 46 48
          50 52 54 56 58 60
          62 64 66 68 70 72
          74 76 78 80 82 84
          86 88 90 92 94 96
          98 100 102 104 106 108
          110 112 114 116 118 120
          122 124 126 128 130 132
          134 136 138 140 142 144
          146 148 150 152
        </DataArray>
        <DataArray type="UInt8" Name="types" format="ascii" RangeMin="3" RangeMax="3">
          3 3 3 3 3 3
          3 3 3 3 3 3
          3 3 3 3 3 3
          3 3 3 3 3 3
          3 3 3 3 3 3
          3 3 3 3 3 3
          3 3 3 3 3 3
          3 3 3 3 3 3
          3 3 3 3 3 3
          3 3 3 3 3 3
          3 3 3 3 3 3
          3 3 3 3 3 3
          3 3 3 3
        </DataArray>
      </Cells>
    </Piece>
  </UnstructuredGrid>
</VTKFile>
