<VTKFile type="UnstructuredGrid" version="0.1" byte_order="LittleEndian">
  <UnstructuredGrid>
    <Piece NumberOfPoints="400" NumberOfCells="798">
      <PointData Scalars="Time">
        <DataArray type="Float64" Name="Pressure" format="ascii" RangeMin="0" RangeMax="0">
          0 0 0 0 0 0
          0 0 0 0 0 0
          0 0 0 0 0 0
          0 0 0 0 0 0
          0 0 0 0 0 0
          0 0 0 0 0 0
          0 0 0 0 0 0
          0 0 0 0 0 0
          0 0 0 0 0 0
          0 0 0 0 0 0
          0 0 0 0 0 0
          0 0 0 0 0 0
          0 0 0 0 0 0
          0 0 0 0 0 0
          0 0 0 0 0 0
          0 0 0 0 0 0
          0 0 0 0 0 0
          0 0 0 0 0 0
          0 0 0 0 0 0
          0 0 0 0 0 0
          0 0 0 0 0 0
          0 0 0 0 0 0
          0 0 0 0 0 0
          0 0 0 0 0 0
          0 0 0 0 0 0
          0 0 0 0 0 0
          0 0 0 0 0 0
          0 0 0 0 0 0
          0 0 0 0 0 0
          0 0 0 0 0 0
          0 0 0 0 0 0
          0 0 0 0 0 0
          0 0 0 0 0 0
          0 0 0 0 0 0
          0 0 0 0 0 0
          0 0 0 0 0 0
          0 0 0 0 0 0
          0 0 0 0 0 0
          0 0 0 0 0 0
          0 0 0 0 0 0
          0 0 0 0 0 0
          0 0 0 0 0 0
          0 0 0 0 0 0
          0 0 0 0 0 0
          0 0 0 0 0 0
          0 0 0 0 0 0
          0 0 0 0 0 0
          0 0 0 0 0 0
          0 0 0 0 0 0
          0 0 0 0 0 0
          0 0 0 0 0 0
          0 0 0 0 0 0
          0 0 0 0 0 0
          0 0 0 0 0 0
          0 0 0 0 0 0
          0 0 0 0 0 0
          0 0 0 0 0 0
          0 0 0 0 0 0
          0 0 0 0 0 0
          0 0 0 0 0 0
          0 0 0 0 0 0
          0 0 0 0 0 0
          0 0 0 0 0 0
          0 0 0 0 0 0
          0 0 0 0 0 0
          0 0 0 0 0 0
          0 0 0 0
        </DataArray>
        <DataArray type="Float64" Name="Time" format="ascii" RangeMin="1000000000" RangeMax="1000000000">
          1000000000 1000000000 1000000000 1000000000 1000000000 1000000000
          1000000000 1000000000 1000000000 1000000000 1000000000 1000000000
          1000000000 1000000000 1000000000 1000000000 1000000000 1000000000
          1000000000 1000000000 1000000000 1000000000 1000000000 1000000000
          1000000000 1000000000 1000000000 1000000000 1000000000 1000000000
          1000000000 1000000000 1000000000 1000000000 1000000000 1000000000
          1000000000 1000000000 1000000000 1000000000 1000000000 1000000000
          1000000000 1000000000 1000000000 1000000000 1000000000 1000000000
          1000000000 1000000000 1000000000 1000000000 1000000000 1000000000
          1000000000 1000000000 1000000000 1000000000 1000000000 1000000000
          1000000000 1000000000 1000000000 1000000000 1000000000 1000000000
          1000000000 1000000000 1000000000 1000000000 1000000000 1000000000
          1000000000 1000000000 1000000000 1000000000 1000000000 1000000000
          1000000000 1000000000 1000000000 1000000000 1000000000 1000000000
          1000000000 1000000000 1000000000 1000000000 1000000000 1000000000
          1000000000 1000000000 1000000000 1000000000 1000000000 1000000000
          1000000000 1000000000 1000000000 1000000000 1000000000 1000000000
          1000000000 1000000000 1000000000 1000000000 1000000000 1000000000
          1000000000 1000000000 1000000000 1000000000 1000000000 1000000000
          1000000000 1000000000 1000000000 1000000000 1000000000 1000000000
          1000000000 1000000000 1000000000 1000000000 1000000000 1000000000
          1000000000 1000000000 1000000000 1000000000 1000000000 1000000000
          1000000000 1000000000 1000000000 1000000000 1000000000 1000000000
          1000000000 1000000000 1000000000 1000000000 1000000000 1000000000
          1000000000 1000000000 1000000000 1000000000 1000000000 1000000000
          1000000000 1000000000 1000000000 1000000000 1000000000 1000000000
          1000000000 1000000000 1000000000 1000000000 1000000000 1000000000
          1000000000 1000000000 1000000000 1000000000 1000000000 1000000000
          1000000000 1000000000 1000000000 1000000000 1000000000 1000000000
          1000000000 1000000000 1000000000 1000000000 1000000000 1000000000
          1000000000 1000000000 1000000000 1000000000 1000000000 1000000000
          1000000000 1000000000 1000000000 1000000000 1000000000 1000000000
          1000000000 1000000000 1000000000 1000000000 1000000000 1000000000
          1000000000 1000000000 1000000000 1000000000 1000000000 1000000000
          1000000000 1000000000 1000000000 1000000000 1000000000 1000000000
          1000000000 1000000000 1000000000 1000000000 1000000000 1000000000
          1000000000 1000000000 1000000000 1000000000 1000000000 1000000000
          1000000000 1000000000 1000000000 1000000000 1000000000 1000000000
          1000000000 1000000000 1000000000 1000000000 1000000000 1000000000
          1000000000 1000000000 1000000000 1000000000 1000000000 1000000000
          1000000000 1000000000 1000000000 1000000000 1000000000 1000000000
          1000000000 1000000000 1000000000 1000000000 1000000000 1000000000
          1000000000 1000000000 1000000000 1000000000 1000000000 1000000000
          1000000000 1000000000 1000000000 1000000000 1000000000 1000000000
          1000000000 1000000000 1000000000 1000000000 1000000000 1000000000
          1000000000 1000000000 1000000000 1000000000 1000000000 1000000000
          1000000000 1000000000 1000000000 1000000000 1000000000 1000000000
          1000000000 1000000000 1000000000 1000000000 1000000000 1000000000
          1000000000 1000000000 1000000000 1000000000 1000000000 1000000000
          1000000000 1000000000 1000000000 1000000000 1000000000 1000000000
          1000000000 1000000000 1000000000 1000000000 1000000000 1000000000
          1000000000 1000000000 1000000000 1000000000 1000000000 1000000000
          1000000000 1000000000 1000000000 1000000000 1000000000 1000000000
          1000000000 1000000000 1000000000 1000000000 1000000000 1000000000
          1000000000 1000000000 1000000000 1000000000 1000000000 1000000000
          1000000000 1000000000 1000000000 1000000000 1000000000 1000000000
          1000000000 1000000000 1000000000 1000000000 1000000000 1000000000
          1000000000 1000000000 1000000000 1000000000 1000000000 1000000000
          1000000000 1000000000 1000000000 1000000000 1000000000 1000000000
          1000000000 1000000000 1000000000 1000000000 1000000000 1000000000
          1000000000 1000000000 1000000000 1000000000 1000000000 1000000000
          1000000000 1000000000 1000000000 1000000000 1000000000 1000000000
          1000000000 1000000000 1000000000 1000000000 1000000000 1000000000
          1000000000 1000000000 1000000000 1000000000 1000000000 1000000000
          1000000000 1000000000 1000000000 1000000000 1000000000 1000000000
          1000000000 1000000000 1000000000 1000000000 1000000000 1000000000
          1000000000 1000000000 1000000000 1000000000
        </DataArray>
      </PointData>
      <CellData>
        <DataArray type="Int32" Name="ElementaryEntities" format="ascii" RangeMin="1" RangeMax="4">
          1 1 1 1 1 1
          1 1 1 1 1 1
          1 1 1 1 1 1
          1 2 2 2 2 2
          2 2 2 2 2 2
          2 2 2 2 2 2
          2 2 3 3 3 3
          3 3 3 3 3 3
          3 3 3 3 3 3
          3 3 3 4 4 4
          4 4 4 4 4 4
          4 4 4 4 4 4
          4 4 4 4 1 1
          1 1 1 1 1 1
          1 1 1 1 1 1
          1 1 1 1 1 1
          1 1 1 1 1 1
          1 1 1 1 1 1
          1 1 1 1 1 1
          1 1 1 1 1 1
          1 1 1 1 1 1
          1 1 1 1 1 1
          1 1 1 1 1 1
          1 1 1 1 1 1
          1 1 1 1 1 1
          1 1 1 1 1 1
          1 1 1 1 1 1
          1 1 1 1 1 1
          1 1 1 1 1 1
          1 1 1 1 1 1
          1 1 1 1 1 1
          1 1 1 1 1 1
          1 1 1 1 1 1
          1 1 1 1 1 1
          1 1 1 1 1 1
          1 1 1 1 1 1
          1 1 1 1 1 1
          1 1 1 1 1 1
          1 1 1 1 1 1
          1 1 1 1 1 1
          1 1 1 1 1 1
          1 1 1 1 1 1
          1 1 1 1 1 1
          1 1 1 1 1 1
          1 1 1 1 1 1
          1 1 1 1 1 1
          1 1 1 1 1 1
          1 1 1 1 1 1
          1 1 1 1 1 1
          1 1 1 1 1 1
          1 1 1 1 1 1
          1 1 1 1 1 1
          1 1 1 1 1 1
          1 1 1 1 1 1
          1 1 1 1 1 1
          1 1 1 1 1 1
          1 1 1 1 1 1
          1 1 1 1 1 1
          1 1 1 1 1 1
          1 1 1 1 1 1
          1 1 1 1 1 1
          1 1 1 1 1 1
          1 1 1 1 1 1
          1 1 1 1 1 1
          1 1 1 1 1 1
          1 1 1 1 1 1
          1 1 1 1 1 1
          1 1 1 1 1 1
          1 1 1 1 1 1
          1 1 1 1 1 1
          1 1 1 1 1 1
          1 1 1 1 1 1
          1 1 1 1 1 1
          1 1 1 1 1 1
          1 1 1 1 1 1
          1 1 1 1 1 1
          1 1 1 1 1 1
          1 1 1 1 1 1
          1 1 1 1 1 1
          1 1 1 1 1 1
          1 1 1 1 1 1
          1 1 1 1 1 1
          1 1 1 1 1 1
          1 1 1 1 1 1
          1 1 1 1 1 1
          1 1 1 1 1 1
          1 1 1 1 1 1
          1 1 1 1 1 1
          1 1 1 1 1 1
          1 1 1 1 1 1
          1 1 1 1 1 1
          1 1 1 1 1 1
          1 1 1 1 1 1
          1 1 1 1 1 1
          1 1 1 1 1 1
          1 1 1 1 1 1
          1 1 1 1 1 1
          1 1 1 1 1 1
          1 1 1 1 1 1
          1 1 1 1 1 1
          1 1 1 1 1 1
          1 1 1 1 1 1
          1 1 1 1 1 1
          1 1 1 1 1 1
          1 1 1 1 1 1
          1 1 1 1 1 1
          1 1 1 1 1 1
          1 1 1 1 1 1
          1 1 1 1 1 1
          1 1 1 1 1 1
          1 1 1 1 1 1
          1 1 1 1 1 1
          1 1 1 1 1 1
          1 1 1 1 1 1
          1 1 1 1 1 1
          1 1 1 1 1 1
          1 1 1 1 1 1
          1 1 1 1 1 1
          1 1 1 1 1 1
          1 1 1 1 1 1
          1 1 1 1 1 1
          1 1 1 1 1 1
          1 1 1 1 1 1
          1 1 1 1 1 1
          1 1 1 1 1 1
          1 1 1 1 1 1
          1 1 1 1 1 1
          1 1 1 1 1 1
          1 1 1 1 1 1
          1 1 1 1 1 1
          1 1 1 1 1 1
          1 1 1 1 1 1
          1 1 1 1 1 1
        </DataArray>
        <DataArray type="Int32" Name="PhysicalIds" format="ascii" RangeMin="1" RangeMax="1">
          1 1 1 1 1 1
          1 1 1 1 1 1
          1 1 1 1 1 1
          1 1 1 1 1 1
          1 1 1 1 1 1
          1 1 1 1 1 1
          1 1 1 1 1 1
          1 1 1 1 1 1
          1 1 1 1 1 1
          1 1 1 1 1 1
          1 1 1 1 1 1
          1 1 1 1 1 1
          1 1 1 1 1 1
          1 1 1 1 1 1
          1 1 1 1 1 1
          1 1 1 1 1 1
          1 1 1 1 1 1
          1 1 1 1 1 1
          1 1 1 1 1 1
          1 1 1 1 1 1
          1 1 1 1 1 1
          1 1 1 1 1 1
          1 1 1 1 1 1
          1 1 1 1 1 1
          1 1 1 1 1 1
          1 1 1 1 1 1
          1 1 1 1 1 1
          1 1 1 1 1 1
          1 1 1 1 1 1
          1 1 1 1 1 1
          1 1 1 1 1 1
          1 1 1 1 1 1
          1 1 1 1 1 1
          1 1 1 1 1 1
          1 1 1 1 1 1
          1 1 1 1 1 1
          1 1 1 1 1 1
          1 1 1 1 1 1
          1 1 1 1 1 1
          1 1 1 1 1 1
          1 1 1 1 1 1
          1 1 1 1 1 1
          1 1 1 1 1 1
          1 1 1 1 1 1
          1 1 1 1 1 1
          1 1 1 1 1 1
          1 1 1 1 1 1
          1 1 1 1 1 1
          1 1 1 1 1 1
          1 1 1 1 1 1
          1 1 1 1 1 1
          1 1 1 1 1 1
          1 1 1 1 1 1
          1 1 1 1 1 1
          1 1 1 1 1 1
          1 1 1 1 1 1
          1 1 1 1 1 1
          1 1 1 1 1 1
          1 1 1 1 1 1
          1 1 1 1 1 1
          1 1 1 1 1 1
          1 1 1 1 1 1
          1 1 1 1 1 1
          1 1 1 1 1 1
          1 1 1 1 1 1
          1 1 1 1 1 1
          1 1 1 1 1 1
          1 1 1 1 1 1
          1 1 1 1 1 1
          1 1 1 1 1 1
          1 1 1 1 1 1
          1 1 1 1 1 1
          1 1 1 1 1 1
          1 1 1 1 1 1
          1 1 1 1 1 1
          1 1 1 1 1 1
          1 1 1 1 1 1
          1 1 1 1 1 1
          1 1 1 1 1 1
          1 1 1 1 1 1
          1 1 1 1 1 1
          1 1 1 1 1 1
          1 1 1 1 1 1
          1 1 1 1 1 1
          1 1 1 1 1 1
          1 1 1 1 1 1
          1 1 1 1 1 1
          1 1 1 1 1 1
          1 1 1 1 1 1
          1 1 1 1 1 1
          1 1 1 1 1 1
          1 1 1 1 1 1
          1 1 1 1 1 1
          1 1 1 1 1 1
          1 1 1 1 1 1
          1 1 1 1 1 1
          1 1 1 1 1 1
          1 1 1 1 1 1
          1 1 1 1 1 1
          1 1 1 1 1 1
          1 1 1 1 1 1
          1 1 1 1 1 1
          1 1 1 1 1 1
          1 1 1 1 1 1
          1 1 1 1 1 1
          1 1 1 1 1 1
          1 1 1 1 1 1
          1 1 1 1 1 1
          1 1 1 1 1 1
          1 1 1 1 1 1
          1 1 1 1 1 1
          1 1 1 1 1 1
          1 1 1 1 1 1
          1 1 1 1 1 1
          1 1 1 1 1 1
          1 1 1 1 1 1
          1 1 1 1 1 1
          1 1 1 1 1 1
          1 1 1 1 1 1
          1 1 1 1 1 1
          1 1 1 1 1 1
          1 1 1 1 1 1
          1 1 1 1 1 1
          1 1 1 1 1 1
          1 1 1 1 1 1
          1 1 1 1 1 1
          1 1 1 1 1 1
          1 1 1 1 1 1
          1 1 1 1 1 1
          1 1 1 1 1 1
          1 1 1 1 1 1
          1 1 1 1 1 1
          1 1 1 1 1 1
        </DataArray>
      </CellData>
      <Points>
        <DataArray type="Float32" Name="Points" NumberOfComponents="3" format="ascii" RangeMin="0" RangeMax="1.4142135624">
          0 0 0 1 0 0
          1 1 0 0 1 0
          0.05263157934 0 0 0.10526315868 0 0
          0.15789473057 0 0 0.21052631736 0 0
          0.26315790415 0 0 0.31578946114 0 0
          0.36842104793 0 0 0.42105263472 0 0
          0.47368422151 0 0 0.5263158083 0 0
          0.57894736528 0 0 0.63157892227 0 0
          0.68421053886 0 0 0.73684209585 0 0
          0.78947371244 0 0 0.84210526943 0 0
          0.89473682642 0 0 0.94736844301 0 0
          1 0.05263157934 0 1 0.10526315868 0
          1 0.15789473057 0 1 0.21052631736 0
          1 0.26315790415 0 1 0.31578946114 0
          1 0.36842104793 0 1 0.42105263472 0
          1 0.47368422151 0 1 0.5263158083 0
          1 0.57894736528 0 1 0.63157892227 0
          1 0.68421053886 0 1 0.73684209585 0
          1 0.78947371244 0 1 0.84210526943 0
          1 0.89473682642 0 1 0.94736844301 0
          0.94736844301 1 0 0.89473682642 1 0
          0.84210526943 1 0 0.78947371244 1 0
          0.73684209585 1 0 0.68421053886 1 0
          0.63157892227 1 0 0.57894736528 1 0
          0.5263158083 1 0 0.47368422151 1 0
          0.42105263472 1 0 0.36842104793 1 0
          0.31578946114 1 0 0.26315790415 1 0
          0.21052631736 1 0 0.15789473057 1 0
          0.10526315868 1 0 0.05263157934 1 0
          0 0.94736844301 0 0 0.89473682642 0
          0 0.84210526943 0 0 0.78947371244 0
          0 0.73684209585 0 0 0.68421053886 0
          0 0.63157892227 0 0 0.57894736528 0
          0 0.5263158083 0 0 0.47368422151 0
          0 0.42105263472 0 0 0.36842104793 0
          0 0.31578946114 0 0 0.26315790415 0
          0 0.21052631736 0 0 0.15789473057 0
          0 0.10526315868 0 0 0.05263157934 0
          0.05263157934 0.05263157934 0 0.05263157934 0.10526315868 0
          0.05263157934 0.15789473057 0 0.05263157934 0.21052631736 0
          0.05263157934 0.26315790415 0 0.05263157934 0.31578946114 0
          0.05263157934 0.36842104793 0 0.05263157934 0.42105263472 0
          0.05263157934 0.47368422151 0 0.05263157934 0.5263158083 0
          0.05263157934 0.57894736528 0 0.05263157934 0.63157892227 0
          0.05263157934 0.68421053886 0 0.05263157934 0.73684209585 0
          0.05263157934 0.78947371244 0 0.05263157934 0.84210526943 0
          0.05263157934 0.89473682642 0 0.05263157934 0.94736844301 0
          0.10526315868 0.05263157934 0 0.10526315868 0.10526315868 0
          0.10526315868 0.15789473057 0 0.10526315868 0.21052631736 0
          0.10526315868 0.26315790415 0 0.10526315868 0.31578946114 0
          0.10526315868 0.36842104793 0 0.10526315868 0.42105263472 0
          0.10526315868 0.47368422151 0 0.10526315868 0.5263158083 0
          0.10526315868 0.57894736528 0 0.10526315868 0.63157892227 0
          0.10526315868 0.68421053886 0 0.10526315868 0.73684209585 0
          0.10526315868 0.78947371244 0 0.10526315868 0.84210526943 0
          0.10526315868 0.89473682642 0 0.10526315868 0.94736844301 0
          0.15789473057 0.05263157934 0 0.15789473057 0.10526315868 0
          0.15789473057 0.15789473057 0 0.15789473057 0.21052631736 0
          0.15789473057 0.26315790415 0 0.15789473057 0.31578946114 0
          0.15789473057 0.36842104793 0 0.15789473057 0.42105263472 0
          0.15789473057 0.47368422151 0 0.15789473057 0.5263158083 0
          0.15789473057 0.57894736528 0 0.15789473057 0.63157892227 0
          0.15789473057 0.68421053886 0 0.15789473057 0.73684209585 0
          0.15789473057 0.78947371244 0 0.15789473057 0.84210526943 0
          0.15789473057 0.89473682642 0 0.15789473057 0.94736844301 0
          0.21052631736 0.05263157934 0 0.21052631736 0.10526315868 0
          0.21052631736 0.15789473057 0 0.21052631736 0.21052631736 0
          0.21052631736 0.26315790415 0 0.21052631736 0.31578946114 0
          0.21052631736 0.36842104793 0 0.21052631736 0.42105263472 0
          0.21052631736 0.47368422151 0 0.21052631736 0.5263158083 0
          0.21052631736 0.57894736528 0 0.21052631736 0.63157892227 0
          0.21052631736 0.68421053886 0 0.21052631736 0.73684209585 0
          0.21052631736 0.78947371244 0 0.21052631736 0.84210526943 0
          0.21052631736 0.89473682642 0 0.21052631736 0.94736844301 0
          0.26315790415 0.05263157934 0 0.26315790415 0.10526315868 0
          0.26315790415 0.15789473057 0 0.26315790415 0.21052631736 0
          0.26315790415 0.26315790415 0 0.26315790415 0.31578946114 0
          0.26315790415 0.36842104793 0 0.26315790415 0.42105263472 0
          0.26315790415 0.47368422151 0 0.26315790415 0.5263158083 0
          0.26315790415 0.57894736528 0 0.26315790415 0.63157892227 0
          0.26315790415 0.68421053886 0 0.26315790415 0.73684209585 0
          0.26315790415 0.78947371244 0 0.26315790415 0.84210526943 0
          0.26315790415 0.89473682642 0 0.26315790415 0.94736844301 0
          0.31578946114 0.05263157934 0 0.31578946114 0.10526315868 0
          0.31578946114 0.15789473057 0 0.31578946114 0.21052631736 0
          0.31578946114 0.26315790415 0 0.31578946114 0.31578946114 0
          0.31578946114 0.36842104793 0 0.31578946114 0.42105263472 0
          0.31578946114 0.47368422151 0 0.31578946114 0.5263158083 0
          0.31578946114 0.57894736528 0 0.31578946114 0.63157892227 0
          0.31578946114 0.68421053886 0 0.31578946114 0.73684209585 0
          0.31578946114 0.78947371244 0 0.31578946114 0.84210526943 0
          0.31578946114 0.89473682642 0 0.31578946114 0.94736844301 0
          0.36842104793 0.05263157934 0 0.36842104793 0.10526315868 0
          0.36842104793 0.15789473057 0 0.36842104793 0.21052631736 0
          0.36842104793 0.26315790415 0 0.36842104793 0.31578946114 0
          0.36842104793 0.36842104793 0 0.36842104793 0.42105263472 0
          0.36842104793 0.47368422151 0 0.36842104793 0.5263158083 0
          0.36842104793 0.57894736528 0 0.36842104793 0.63157892227 0
          0.36842104793 0.68421053886 0 0.36842104793 0.73684209585 0
          0.36842104793 0.78947371244 0 0.36842104793 0.84210526943 0
          0.36842104793 0.89473682642 0 0.36842104793 0.94736844301 0
          0.42105263472 0.05263157934 0 0.42105263472 0.10526315868 0
          0.42105263472 0.15789473057 0 0.42105263472 0.21052631736 0
          0.42105263472 0.26315790415 0 0.42105263472 0.31578946114 0
          0.42105263472 0.36842104793 0 0.42105263472 0.42105263472 0
          0.42105263472 0.47368422151 0 0.42105263472 0.5263158083 0
          0.42105263472 0.57894736528 0 0.42105263472 0.63157892227 0
          0.42105263472 0.68421053886 0 0.42105263472 0.73684209585 0
          0.42105263472 0.78947371244 0 0.42105263472 0.84210526943 0
          0.42105263472 0.89473682642 0 0.42105263472 0.94736844301 0
          0.47368422151 0.05263157934 0 0.47368422151 0.10526315868 0
          0.47368422151 0.15789473057 0 0.47368422151 0.21052631736 0
          0.47368422151 0.26315790415 0 0.47368422151 0.31578946114 0
          0.47368422151 0.36842104793 0 0.47368422151 0.42105263472 0
          0.47368422151 0.47368422151 0 0.47368422151 0.5263158083 0
          0.47368422151 0.57894736528 0 0.47368422151 0.63157892227 0
          0.47368422151 0.68421053886 0 0.47368422151 0.73684209585 0
          0.47368422151 0.78947371244 0 0.47368422151 0.84210526943 0
          0.47368422151 0.89473682642 0 0.47368422151 0.94736844301 0
          0.5263158083 0.05263157934 0 0.5263158083 0.10526315868 0
          0.5263158083 0.15789473057 0 0.5263158083 0.21052631736 0
          0.5263158083 0.26315790415 0 0.5263158083 0.31578946114 0
          0.5263158083 0.36842104793 0 0.5263158083 0.42105263472 0
          0.5263158083 0.47368422151 0 0.5263158083 0.5263158083 0
          0.5263158083 0.57894736528 0 0.5263158083 0.63157892227 0
          0.5263158083 0.68421053886 0 0.5263158083 0.73684209585 0
          0.5263158083 0.78947371244 0 0.5263158083 0.84210526943 0
          0.5263158083 0.89473682642 0 0.5263158083 0.94736844301 0
          0.57894736528 0.05263157934 0 0.57894736528 0.10526315868 0
          0.57894736528 0.15789473057 0 0.57894736528 0.21052631736 0
          0.57894736528 0.26315790415 0 0.57894736528 0.31578946114 0
          0.57894736528 0.36842104793 0 0.57894736528 0.42105263472 0
          0.57894736528 0.47368422151 0 0.57894736528 0.5263158083 0
          0.57894736528 0.57894736528 0 0.57894736528 0.63157892227 0
          0.57894736528 0.68421053886 0 0.57894736528 0.73684209585 0
          0.57894736528 0.78947371244 0 0.57894736528 0.84210526943 0
          0.57894736528 0.89473682642 0 0.57894736528 0.94736844301 0
          0.63157892227 0.05263157934 0 0.63157892227 0.10526315868 0
          0.63157892227 0.15789473057 0 0.63157892227 0.21052631736 0
          0.63157892227 0.26315790415 0 0.63157892227 0.31578946114 0
          0.63157892227 0.36842104793 0 0.63157892227 0.42105263472 0
          0.63157892227 0.47368422151 0 0.63157892227 0.5263158083 0
          0.63157892227 0.57894736528 0 0.63157892227 0.63157892227 0
          0.63157892227 0.68421053886 0 0.63157892227 0.73684209585 0
          0.63157892227 0.78947371244 0 0.63157892227 0.84210526943 0
          0.63157892227 0.89473682642 0 0.63157892227 0.94736844301 0
          0.68421053886 0.05263157934 0 0.68421053886 0.10526315868 0
          0.68421053886 0.15789473057 0 0.68421053886 0.21052631736 0
          0.68421053886 0.26315790415 0 0.68421053886 0.31578946114 0
          0.68421053886 0.36842104793 0 0.68421053886 0.42105263472 0
          0.68421053886 0.47368422151 0 0.68421053886 0.5263158083 0
          0.68421053886 0.57894736528 0 0.68421053886 0.63157892227 0
          0.68421053886 0.68421053886 0 0.68421053886 0.73684209585 0
          0.68421053886 0.78947371244 0 0.68421053886 0.84210526943 0
          0.68421053886 0.89473682642 0 0.68421053886 0.94736844301 0
          0.73684209585 0.05263157934 0 0.73684209585 0.10526315868 0
          0.73684209585 0.15789473057 0 0.73684209585 0.21052631736 0
          0.73684209585 0.26315790415 0 0.73684209585 0.31578946114 0
          0.73684209585 0.36842104793 0 0.73684209585 0.42105263472 0
          0.73684209585 0.47368422151 0 0.73684209585 0.5263158083 0
          0.73684209585 0.57894736528 0 0.73684209585 0.63157892227 0
          0.73684209585 0.68421053886 0 0.73684209585 0.73684209585 0
          0.73684209585 0.78947371244 0 0.73684209585 0.84210526943 0
          0.73684209585 0.89473682642 0 0.73684209585 0.94736844301 0
          0.78947371244 0.05263157934 0 0.78947371244 0.10526315868 0
          0.78947371244 0.15789473057 0 0.78947371244 0.21052631736 0
          0.78947371244 0.26315790415 0 0.78947371244 0.31578946114 0
          0.78947371244 0.36842104793 0 0.78947371244 0.42105263472 0
          0.78947371244 0.47368422151 0 0.78947371244 0.5263158083 0
          0.78947371244 0.57894736528 0 0.78947371244 0.63157892227 0
          0.78947371244 0.68421053886 0 0.78947371244 0.73684209585 0
          0.78947371244 0.78947371244 0 0.78947371244 0.84210526943 0
          0.78947371244 0.89473682642 0 0.78947371244 0.94736844301 0
          0.84210526943 0.05263157934 0 0.84210526943 0.10526315868 0
          0.84210526943 0.15789473057 0 0.84210526943 0.21052631736 0
          0.84210526943 0.26315790415 0 0.84210526943 0.31578946114 0
          0.84210526943 0.36842104793 0 0.84210526943 0.42105263472 0
          0.84210526943 0.47368422151 0 0.84210526943 0.5263158083 0
          0.84210526943 0.57894736528 0 0.84210526943 0.63157892227 0
          0.84210526943 0.68421053886 0 0.84210526943 0.73684209585 0
          0.84210526943 0.78947371244 0 0.84210526943 0.84210526943 0
          0.84210526943 0.89473682642 0 0.84210526943 0.94736844301 0
          0.89473682642 0.05263157934 0 0.89473682642 0.10526315868 0
          0.89473682642 0.15789473057 0 0.89473682642 0.21052631736 0
          0.89473682642 0.26315790415 0 0.89473682642 0.31578946114 0
          0.89473682642 0.36842104793 0 0.89473682642 0.42105263472 0
          0.89473682642 0.47368422151 0 0.89473682642 0.5263158083 0
          0.89473682642 0.57894736528 0 0.89473682642 0.63157892227 0
          0.89473682642 0.68421053886 0 0.89473682642 0.73684209585 0
          0.89473682642 0.78947371244 0 0.89473682642 0.84210526943 0
          0.89473682642 0.89473682642 0 0.89473682642 0.94736844301 0
          0.94736844301 0.05263157934 0 0.94736844301 0.10526315868 0
          0.94736844301 0.15789473057 0 0.94736844301 0.21052631736 0
          0.94736844301 0.26315790415 0 0.94736844301 0.31578946114 0
          0.94736844301 0.36842104793 0 0.94736844301 0.42105263472 0
          0.94736844301 0.47368422151 0 0.94736844301 0.5263158083 0
          0.94736844301 0.57894736528 0 0.94736844301 0.63157892227 0
          0.94736844301 0.68421053886 0 0.94736844301 0.73684209585 0
          0.94736844301 0.78947371244 0 0.94736844301 0.84210526943 0
          0.94736844301 0.89473682642 0 0.94736844301 0.94736844301 0
        </DataArray>
      </Points>
      <Cells>
        <DataArray type="Int64" Name="connectivity" format="ascii" RangeMin="0" RangeMax="399">
          0 4 4 5 5 6
          6 7 7 8 8 9
          9 10 10 11 11 12
          12 13 13 14 14 15
          15 16 16 17 17 18
          18 19 19 20 20 21
          21 1 1 22 22 23
          23 24 24 25 25 26
          26 27 27 28 28 29
          29 30 30 31 31 32
          32 33 33 34 34 35
          35 36 36 37 37 38
          38 39 39 2 2 40
          40 41 41 42 42 43
          43 44 44 45 45 46
          46 47 47 48 48 49
          49 50 50 51 51 52
          52 53 53 54 54 55
          55 56 56 57 57 3
          3 58 58 59 59 60
          60 61 61 62 62 63
          63 64 64 65 65 66
          66 67 67 68 68 69
          69 70 70 71 71 72
          72 73 73 74 74 75
          75 0 0 4 75 75
          4 76 75 76 77 77
          74 75 74 77 73 73
          77 78 73 78 79 79
          72 73 72 79 71 71
          79 80 71 80 81 81
          70 71 70 81 69 69
          81 82 69 82 83 83
          68 69 68 83 67 67
          83 84 67 84 85 85
          66 67 66 85 65 65
          85 86 65 86 87 87
          64 65 64 87 63 63
          87 88 63 88 89 89
          62 63 62 89 61 61
          89 90 61 90 91 91
          60 61 60 91 59 59
          91 92 59 92 93 93
          58 59 58 93 3 3
          93 57 4 5 94 94
          76 4 76 94 77 77
          94 95 77 95 96 96
          78 77 78 96 79 79
          96 97 79 97 98 98
          80 79 80 98 81 81
          98 99 81 99 100 100
          82 81 82 100 83 83
          100 101 83 101 102 102
          84 83 84 102 85 85
          102 103 85 103 104 104
          86 85 86 104 87 87
          104 105 87 105 106 106
          88 87 88 106 89 89
          106 107 89 107 108 108
          90 89 90 108 91 91
          108 109 91 109 110 110
          92 91 92 110 93 93
          110 111 93 111 56 56
          57 93 5 6 94 94
          6 112 94 112 113 113
          95 94 95 113 96 96
          113 114 96 114 115 115
          97 96 97 115 98 98
          115 116 98 116 117 117
          99 98 99 117 100 100
          117 118 100 118 119 119
          101 100 101 119 102 102
          119 120 102 120 121 121
          103 102 103 121 104 104
          121 122 104 122 123 123
          105 104 105 123 106 106
          123 124 106 124 125 125
          107 106 107 125 108 108
          125 126 108 126 127 127
          109 108 109 127 110 110
          127 128 110 128 129 129
          111 110 111 129 56 56
          129 55 6 7 130 130
          112 6 112 130 113 113
          130 131 113 131 132 132
          114 113 114 132 115 115
          132 133 115 133 134 134
          116 115 116 134 117 117
          134 135 117 135 136 136
          118 117 118 136 119 119
          136 137 119 137 138 138
          120 119 120 138 121 121
          138 139 121 139 140 140
          122 121 122 140 123 123
          140 141 123 141 142 142
          124 123 124 142 125 125
          142 143 125 143 144 144
          126 125 126 144 127 127
          144 145 127 145 146 146
          128 127 128 146 129 129
          146 147 129 147 54 54
          55 129 7 8 130 130
          8 148 130 148 149 149
          131 130 131 149 132 132
          149 150 132 150 151 151
          133 132 133 151 134 134
          151 152 134 152 153 153
          135 134 135 153 136 136
          153 154 136 154 155 155
          137 136 137 155 138 138
          155 156 138 156 157 157
          139 138 139 157 140 140
          157 158 140 158 159 159
          141 140 141 159 142 142
          159 160 142 160 161 161
          143 142 143 161 144 144
          161 162 144 162 163 163
          145 144 145 163 146 146